ITEM: TIMESTEP
0
ITEM: NUMBER OF ATOMS
34680
ITEM: BOX BOUNDS pp pp pp
0.0  62.426 xlo xhi
0.0  61.271 ylo yhi
0.0 300.165 zlo zhi
ITEM: ATOMS id type xs ys zs
1 1 0.0000000 0.0000000 0.0000000
2 1 0.0333333 0.0000000 0.0098039
3 1 0.0500000 0.0294118 0.0000000
4 1 0.0833333 0.0294118 0.0098039
5 1 0.0000000 0.0588235 0.0000000
6 1 0.0333333 0.0588235 0.0098039
7 1 0.0500000 0.0882353 0.0000000
8 1 0.0833333 0.0882353 0.0098039
9 1 0.0000000 0.1176471 0.0000000
10 1 0.0333333 0.1176471 0.0098039
11 1 0.0500000 0.1470588 0.0000000
12 1 0.0833333 0.1470588 0.0098039
13 1 0.0000000 0.1764706 0.0000000
14 1 0.0333333 0.1764706 0.0098039
15 1 0.0500000 0.2058824 0.0000000
16 1 0.0833333 0.2058824 0.0098039
17 1 0.0000000 0.2352941 0.0000000
18 1 0.0333333 0.2352941 0.0098039
19 1 0.0500000 0.2647059 0.0000000
20 1 0.0833333 0.2647059 0.0098039
21 1 0.0000000 0.2941176 0.0000000
22 1 0.0333333 0.2941176 0.0098039
23 1 0.0500000 0.3235294 0.0000000
24 1 0.0833333 0.3235294 0.0098039
25 1 0.0000000 0.3529412 0.0000000
26 1 0.0333333 0.3529412 0.0098039
27 1 0.0500000 0.3823529 0.0000000
28 1 0.0833333 0.3823529 0.0098039
29 1 0.0000000 0.4117647 0.0000000
30 1 0.0333333 0.4117647 0.0098039
31 1 0.0500000 0.4411765 0.0000000
32 1 0.0833333 0.4411765 0.0098039
33 1 0.0000000 0.4705882 0.0000000
34 1 0.0333333 0.4705882 0.0098039
35 1 0.0500000 0.5000000 0.0000000
36 1 0.0833333 0.5000000 0.0098039
37 1 0.0000000 0.5294118 0.0000000
38 1 0.0333333 0.5294118 0.0098039
39 1 0.0500000 0.5588235 0.0000000
40 1 0.0833333 0.5588235 0.0098039
41 1 0.0000000 0.5882353 0.0000000
42 1 0.0333333 0.5882353 0.0098039
43 1 0.0500000 0.6176471 0.0000000
44 1 0.0833333 0.6176471 0.0098039
45 1 0.0000000 0.6470588 0.0000000
46 1 0.0333333 0.6470588 0.0098039
47 1 0.0500000 0.6764706 0.0000000
48 1 0.0833333 0.6764706 0.0098039
49 1 0.0000000 0.7058824 0.0000000
50 1 0.0333333 0.7058824 0.0098039
51 1 0.0500000 0.7352941 0.0000000
52 1 0.0833333 0.7352941 0.0098039
53 1 0.0000000 0.7647059 0.0000000
54 1 0.0333333 0.7647059 0.0098039
55 1 0.0500000 0.7941176 0.0000000
56 1 0.0833333 0.7941176 0.0098039
57 1 0.0000000 0.8235294 0.0000000
58 1 0.0333333 0.8235294 0.0098039
59 1 0.0500000 0.8529412 0.0000000
60 1 0.0833333 0.8529412 0.0098039
61 1 0.0000000 0.8823529 0.0000000
62 1 0.0333333 0.8823529 0.0098039
63 1 0.0500000 0.9117647 0.0000000
64 1 0.0833333 0.9117647 0.0098039
65 1 0.0000000 0.9411765 0.0000000
66 1 0.0333333 0.9411765 0.0098039
67 1 0.0500000 0.9705882 0.0000000
68 1 0.0833333 0.9705882 0.0098039
69 1 0.1000000 0.0000000 0.0000000
70 1 0.1333333 0.0000000 0.0098039
71 1 0.1500000 0.0294118 0.0000000
72 1 0.1833333 0.0294118 0.0098039
73 1 0.1000000 0.0588235 0.0000000
74 1 0.1333333 0.0588235 0.0098039
75 1 0.1500000 0.0882353 0.0000000
76 1 0.1833333 0.0882353 0.0098039
77 1 0.1000000 0.1176471 0.0000000
78 1 0.1333333 0.1176471 0.0098039
79 1 0.1500000 0.1470588 0.0000000
80 1 0.1833333 0.1470588 0.0098039
81 1 0.1000000 0.1764706 0.0000000
82 1 0.1333333 0.1764706 0.0098039
83 1 0.1500000 0.2058824 0.0000000
84 1 0.1833333 0.2058824 0.0098039
85 1 0.1000000 0.2352941 0.0000000
86 1 0.1333333 0.2352941 0.0098039
87 1 0.1500000 0.2647059 0.0000000
88 1 0.1833333 0.2647059 0.0098039
89 1 0.1000000 0.2941176 0.0000000
90 1 0.1333333 0.2941176 0.0098039
91 1 0.1500000 0.3235294 0.0000000
92 1 0.1833333 0.3235294 0.0098039
93 1 0.1000000 0.3529412 0.0000000
94 1 0.1333333 0.3529412 0.0098039
95 1 0.1500000 0.3823529 0.0000000
96 1 0.1833333 0.3823529 0.0098039
97 1 0.1000000 0.4117647 0.0000000
98 1 0.1333333 0.4117647 0.0098039
99 1 0.1500000 0.4411765 0.0000000
100 1 0.1833333 0.4411765 0.0098039
101 1 0.1000000 0.4705882 0.0000000
102 1 0.1333333 0.4705882 0.0098039
103 1 0.1500000 0.5000000 0.0000000
104 1 0.1833333 0.5000000 0.0098039
105 1 0.1000000 0.5294118 0.0000000
106 1 0.1333333 0.5294118 0.0098039
107 1 0.1500000 0.5588235 0.0000000
108 1 0.1833333 0.5588235 0.0098039
109 1 0.1000000 0.5882353 0.0000000
110 1 0.1333333 0.5882353 0.0098039
111 1 0.1500000 0.6176471 0.0000000
112 1 0.1833333 0.6176471 0.0098039
113 1 0.1000000 0.6470588 0.0000000
114 1 0.1333333 0.6470588 0.0098039
115 1 0.1500000 0.6764706 0.0000000
116 1 0.1833333 0.6764706 0.0098039
117 1 0.1000000 0.7058824 0.0000000
118 1 0.1333333 0.7058824 0.0098039
119 1 0.1500000 0.7352941 0.0000000
120 1 0.1833333 0.7352941 0.0098039
121 1 0.1000000 0.7647059 0.0000000
122 1 0.1333333 0.7647059 0.0098039
123 1 0.1500000 0.7941176 0.0000000
124 1 0.1833333 0.7941176 0.0098039
125 1 0.1000000 0.8235294 0.0000000
126 1 0.1333333 0.8235294 0.0098039
127 1 0.1500000 0.8529412 0.0000000
128 1 0.1833333 0.8529412 0.0098039
129 1 0.1000000 0.8823529 0.0000000
130 1 0.1333333 0.8823529 0.0098039
131 1 0.1500000 0.9117647 0.0000000
132 1 0.1833333 0.9117647 0.0098039
133 1 0.1000000 0.9411765 0.0000000
134 1 0.1333333 0.9411765 0.0098039
135 1 0.1500000 0.9705882 0.0000000
136 1 0.1833333 0.9705882 0.0098039
137 1 0.2000000 0.0000000 0.0000000
138 1 0.2333333 0.0000000 0.0098039
139 1 0.2500000 0.0294118 0.0000000
140 1 0.2833333 0.0294118 0.0098039
141 1 0.2000000 0.0588235 0.0000000
142 1 0.2333333 0.0588235 0.0098039
143 1 0.2500000 0.0882353 0.0000000
144 1 0.2833333 0.0882353 0.0098039
145 1 0.2000000 0.1176471 0.0000000
146 1 0.2333333 0.1176471 0.0098039
147 1 0.2500000 0.1470588 0.0000000
148 1 0.2833333 0.1470588 0.0098039
149 1 0.2000000 0.1764706 0.0000000
150 1 0.2333333 0.1764706 0.0098039
151 1 0.2500000 0.2058824 0.0000000
152 1 0.2833333 0.2058824 0.0098039
153 1 0.2000000 0.2352941 0.0000000
154 1 0.2333333 0.2352941 0.0098039
155 1 0.2500000 0.2647059 0.0000000
156 1 0.2833333 0.2647059 0.0098039
157 1 0.2000000 0.2941176 0.0000000
158 1 0.2333333 0.2941176 0.0098039
159 1 0.2500000 0.3235294 0.0000000
160 1 0.2833333 0.3235294 0.0098039
161 1 0.2000000 0.3529412 0.0000000
162 1 0.2333333 0.3529412 0.0098039
163 1 0.2500000 0.3823529 0.0000000
164 1 0.2833333 0.3823529 0.0098039
165 1 0.2000000 0.4117647 0.0000000
166 1 0.2333333 0.4117647 0.0098039
167 1 0.2500000 0.4411765 0.0000000
168 1 0.2833333 0.4411765 0.0098039
169 1 0.2000000 0.4705882 0.0000000
170 1 0.2333333 0.4705882 0.0098039
171 1 0.2500000 0.5000000 0.0000000
172 1 0.2833333 0.5000000 0.0098039
173 1 0.2000000 0.5294118 0.0000000
174 1 0.2333333 0.5294118 0.0098039
175 1 0.2500000 0.5588235 0.0000000
176 1 0.2833333 0.5588235 0.0098039
177 1 0.2000000 0.5882353 0.0000000
178 1 0.2333333 0.5882353 0.0098039
179 1 0.2500000 0.6176471 0.0000000
180 1 0.2833333 0.6176471 0.0098039
181 1 0.2000000 0.6470588 0.0000000
182 1 0.2333333 0.6470588 0.0098039
183 1 0.2500000 0.6764706 0.0000000
184 1 0.2833333 0.6764706 0.0098039
185 1 0.2000000 0.7058824 0.0000000
186 1 0.2333333 0.7058824 0.0098039
187 1 0.2500000 0.7352941 0.0000000
188 1 0.2833333 0.7352941 0.0098039
189 1 0.2000000 0.7647059 0.0000000
190 1 0.2333333 0.7647059 0.0098039
191 1 0.2500000 0.7941176 0.0000000
192 1 0.2833333 0.7941176 0.0098039
193 1 0.2000000 0.8235294 0.0000000
194 1 0.2333333 0.8235294 0.0098039
195 1 0.2500000 0.8529412 0.0000000
196 1 0.2833333 0.8529412 0.0098039
197 1 0.2000000 0.8823529 0.0000000
198 1 0.2333333 0.8823529 0.0098039
199 1 0.2500000 0.9117647 0.0000000
200 1 0.2833333 0.9117647 0.0098039
201 1 0.2000000 0.9411765 0.0000000
202 1 0.2333333 0.9411765 0.0098039
203 1 0.2500000 0.9705882 0.0000000
204 1 0.2833333 0.9705882 0.0098039
205 1 0.3000000 0.0000000 0.0000000
206 1 0.3333333 0.0000000 0.0098039
207 1 0.3500000 0.0294118 0.0000000
208 1 0.3833333 0.0294118 0.0098039
209 1 0.3000000 0.0588235 0.0000000
210 1 0.3333333 0.0588235 0.0098039
211 1 0.3500000 0.0882353 0.0000000
212 1 0.3833333 0.0882353 0.0098039
213 1 0.3000000 0.1176471 0.0000000
214 1 0.3333333 0.1176471 0.0098039
215 1 0.3500000 0.1470588 0.0000000
216 1 0.3833333 0.1470588 0.0098039
217 1 0.3000000 0.1764706 0.0000000
218 1 0.3333333 0.1764706 0.0098039
219 1 0.3500000 0.2058824 0.0000000
220 1 0.3833333 0.2058824 0.0098039
221 1 0.3000000 0.2352941 0.0000000
222 1 0.3333333 0.2352941 0.0098039
223 1 0.3500000 0.2647059 0.0000000
224 1 0.3833333 0.2647059 0.0098039
225 1 0.3000000 0.2941176 0.0000000
226 1 0.3333333 0.2941176 0.0098039
227 1 0.3500000 0.3235294 0.0000000
228 1 0.3833333 0.3235294 0.0098039
229 1 0.3000000 0.3529412 0.0000000
230 1 0.3333333 0.3529412 0.0098039
231 1 0.3500000 0.3823529 0.0000000
232 1 0.3833333 0.3823529 0.0098039
233 1 0.3000000 0.4117647 0.0000000
234 1 0.3333333 0.4117647 0.0098039
235 1 0.3500000 0.4411765 0.0000000
236 1 0.3833333 0.4411765 0.0098039
237 1 0.3000000 0.4705882 0.0000000
238 1 0.3333333 0.4705882 0.0098039
239 1 0.3500000 0.5000000 0.0000000
240 1 0.3833333 0.5000000 0.0098039
241 1 0.3000000 0.5294118 0.0000000
242 1 0.3333333 0.5294118 0.0098039
243 1 0.3500000 0.5588235 0.0000000
244 1 0.3833333 0.5588235 0.0098039
245 1 0.3000000 0.5882353 0.0000000
246 1 0.3333333 0.5882353 0.0098039
247 1 0.3500000 0.6176471 0.0000000
248 1 0.3833333 0.6176471 0.0098039
249 1 0.3000000 0.6470588 0.0000000
250 1 0.3333333 0.6470588 0.0098039
251 1 0.3500000 0.6764706 0.0000000
252 1 0.3833333 0.6764706 0.0098039
253 1 0.3000000 0.7058824 0.0000000
254 1 0.3333333 0.7058824 0.0098039
255 1 0.3500000 0.7352941 0.0000000
256 1 0.3833333 0.7352941 0.0098039
257 1 0.3000000 0.7647059 0.0000000
258 1 0.3333333 0.7647059 0.0098039
259 1 0.3500000 0.7941176 0.0000000
260 1 0.3833333 0.7941176 0.0098039
261 1 0.3000000 0.8235294 0.0000000
262 1 0.3333333 0.8235294 0.0098039
263 1 0.3500000 0.8529412 0.0000000
264 1 0.3833333 0.8529412 0.0098039
265 1 0.3000000 0.8823529 0.0000000
266 1 0.3333333 0.8823529 0.0098039
267 1 0.3500000 0.9117647 0.0000000
268 1 0.3833333 0.9117647 0.0098039
269 1 0.3000000 0.9411765 0.0000000
270 1 0.3333333 0.9411765 0.0098039
271 1 0.3500000 0.9705882 0.0000000
272 1 0.3833333 0.9705882 0.0098039
273 1 0.4000000 0.0000000 0.0000000
274 1 0.4333333 0.0000000 0.0098039
275 1 0.4500000 0.0294118 0.0000000
276 1 0.4833333 0.0294118 0.0098039
277 1 0.4000000 0.0588235 0.0000000
278 1 0.4333333 0.0588235 0.0098039
279 1 0.4500000 0.0882353 0.0000000
280 1 0.4833333 0.0882353 0.0098039
281 1 0.4000000 0.1176471 0.0000000
282 1 0.4333333 0.1176471 0.0098039
283 1 0.4500000 0.1470588 0.0000000
284 1 0.4833333 0.1470588 0.0098039
285 1 0.4000000 0.1764706 0.0000000
286 1 0.4333333 0.1764706 0.0098039
287 1 0.4500000 0.2058824 0.0000000
288 1 0.4833333 0.2058824 0.0098039
289 1 0.4000000 0.2352941 0.0000000
290 1 0.4333333 0.2352941 0.0098039
291 1 0.4500000 0.2647059 0.0000000
292 1 0.4833333 0.2647059 0.0098039
293 1 0.4000000 0.2941176 0.0000000
294 1 0.4333333 0.2941176 0.0098039
295 1 0.4500000 0.3235294 0.0000000
296 1 0.4833333 0.3235294 0.0098039
297 1 0.4000000 0.3529412 0.0000000
298 1 0.4333333 0.3529412 0.0098039
299 1 0.4500000 0.3823529 0.0000000
300 1 0.4833333 0.3823529 0.0098039
301 1 0.4000000 0.4117647 0.0000000
302 1 0.4333333 0.4117647 0.0098039
303 1 0.4500000 0.4411765 0.0000000
304 1 0.4833333 0.4411765 0.0098039
305 1 0.4000000 0.4705882 0.0000000
306 1 0.4333333 0.4705882 0.0098039
307 1 0.4500000 0.5000000 0.0000000
308 1 0.4833333 0.5000000 0.0098039
309 1 0.4000000 0.5294118 0.0000000
310 1 0.4333333 0.5294118 0.0098039
311 1 0.4500000 0.5588235 0.0000000
312 1 0.4833333 0.5588235 0.0098039
313 1 0.4000000 0.5882353 0.0000000
314 1 0.4333333 0.5882353 0.0098039
315 1 0.4500000 0.6176471 0.0000000
316 1 0.4833333 0.6176471 0.0098039
317 1 0.4000000 0.6470588 0.0000000
318 1 0.4333333 0.6470588 0.0098039
319 1 0.4500000 0.6764706 0.0000000
320 1 0.4833333 0.6764706 0.0098039
321 1 0.4000000 0.7058824 0.0000000
322 1 0.4333333 0.7058824 0.0098039
323 1 0.4500000 0.7352941 0.0000000
324 1 0.4833333 0.7352941 0.0098039
325 1 0.4000000 0.7647059 0.0000000
326 1 0.4333333 0.7647059 0.0098039
327 1 0.4500000 0.7941176 0.0000000
328 1 0.4833333 0.7941176 0.0098039
329 1 0.4000000 0.8235294 0.0000000
330 1 0.4333333 0.8235294 0.0098039
331 1 0.4500000 0.8529412 0.0000000
332 1 0.4833333 0.8529412 0.0098039
333 1 0.4000000 0.8823529 0.0000000
334 1 0.4333333 0.8823529 0.0098039
335 1 0.4500000 0.9117647 0.0000000
336 1 0.4833333 0.9117647 0.0098039
337 1 0.4000000 0.9411765 0.0000000
338 1 0.4333333 0.9411765 0.0098039
339 1 0.4500000 0.9705882 0.0000000
340 1 0.4833333 0.9705882 0.0098039
341 1 0.5000000 0.0000000 0.0000000
342 1 0.5333333 0.0000000 0.0098039
343 1 0.5500000 0.0294118 0.0000000
344 1 0.5833333 0.0294118 0.0098039
345 1 0.5000000 0.0588235 0.0000000
346 1 0.5333333 0.0588235 0.0098039
347 1 0.5500000 0.0882353 0.0000000
348 1 0.5833333 0.0882353 0.0098039
349 1 0.5000000 0.1176471 0.0000000
350 1 0.5333333 0.1176471 0.0098039
351 1 0.5500000 0.1470588 0.0000000
352 1 0.5833333 0.1470588 0.0098039
353 1 0.5000000 0.1764706 0.0000000
354 1 0.5333333 0.1764706 0.0098039
355 1 0.5500000 0.2058824 0.0000000
356 1 0.5833333 0.2058824 0.0098039
357 1 0.5000000 0.2352941 0.0000000
358 1 0.5333333 0.2352941 0.0098039
359 1 0.5500000 0.2647059 0.0000000
360 1 0.5833333 0.2647059 0.0098039
361 1 0.5000000 0.2941176 0.0000000
362 1 0.5333333 0.2941176 0.0098039
363 1 0.5500000 0.3235294 0.0000000
364 1 0.5833333 0.3235294 0.0098039
365 1 0.5000000 0.3529412 0.0000000
366 1 0.5333333 0.3529412 0.0098039
367 1 0.5500000 0.3823529 0.0000000
368 1 0.5833333 0.3823529 0.0098039
369 1 0.5000000 0.4117647 0.0000000
370 1 0.5333333 0.4117647 0.0098039
371 1 0.5500000 0.4411765 0.0000000
372 1 0.5833333 0.4411765 0.0098039
373 1 0.5000000 0.4705882 0.0000000
374 1 0.5333333 0.4705882 0.0098039
375 1 0.5500000 0.5000000 0.0000000
376 1 0.5833333 0.5000000 0.0098039
377 1 0.5000000 0.5294118 0.0000000
378 1 0.5333333 0.5294118 0.0098039
379 1 0.5500000 0.5588235 0.0000000
380 1 0.5833333 0.5588235 0.0098039
381 1 0.5000000 0.5882353 0.0000000
382 1 0.5333333 0.5882353 0.0098039
383 1 0.5500000 0.6176471 0.0000000
384 1 0.5833333 0.6176471 0.0098039
385 1 0.5000000 0.6470588 0.0000000
386 1 0.5333333 0.6470588 0.0098039
387 1 0.5500000 0.6764706 0.0000000
388 1 0.5833333 0.6764706 0.0098039
389 1 0.5000000 0.7058824 0.0000000
390 1 0.5333333 0.7058824 0.0098039
391 1 0.5500000 0.7352941 0.0000000
392 1 0.5833333 0.7352941 0.0098039
393 1 0.5000000 0.7647059 0.0000000
394 1 0.5333333 0.7647059 0.0098039
395 1 0.5500000 0.7941176 0.0000000
396 1 0.5833333 0.7941176 0.0098039
397 1 0.5000000 0.8235294 0.0000000
398 1 0.5333333 0.8235294 0.0098039
399 1 0.5500000 0.8529412 0.0000000
400 1 0.5833333 0.8529412 0.0098039
401 1 0.5000000 0.8823529 0.0000000
402 1 0.5333333 0.8823529 0.0098039
403 1 0.5500000 0.9117647 0.0000000
404 1 0.5833333 0.9117647 0.0098039
405 1 0.5000000 0.9411765 0.0000000
406 1 0.5333333 0.9411765 0.0098039
407 1 0.5500000 0.9705882 0.0000000
408 1 0.5833333 0.9705882 0.0098039
409 1 0.6000000 0.0000000 0.0000000
410 1 0.6333333 0.0000000 0.0098039
411 1 0.6500000 0.0294118 0.0000000
412 1 0.6833333 0.0294118 0.0098039
413 1 0.6000000 0.0588235 0.0000000
414 1 0.6333333 0.0588235 0.0098039
415 1 0.6500000 0.0882353 0.0000000
416 1 0.6833333 0.0882353 0.0098039
417 1 0.6000000 0.1176471 0.0000000
418 1 0.6333333 0.1176471 0.0098039
419 1 0.6500000 0.1470588 0.0000000
420 1 0.6833333 0.1470588 0.0098039
421 1 0.6000000 0.1764706 0.0000000
422 1 0.6333333 0.1764706 0.0098039
423 1 0.6500000 0.2058824 0.0000000
424 1 0.6833333 0.2058824 0.0098039
425 1 0.6000000 0.2352941 0.0000000
426 1 0.6333333 0.2352941 0.0098039
427 1 0.6500000 0.2647059 0.0000000
428 1 0.6833333 0.2647059 0.0098039
429 1 0.6000000 0.2941176 0.0000000
430 1 0.6333333 0.2941176 0.0098039
431 1 0.6500000 0.3235294 0.0000000
432 1 0.6833333 0.3235294 0.0098039
433 1 0.6000000 0.3529412 0.0000000
434 1 0.6333333 0.3529412 0.0098039
435 1 0.6500000 0.3823529 0.0000000
436 1 0.6833333 0.3823529 0.0098039
437 1 0.6000000 0.4117647 0.0000000
438 1 0.6333333 0.4117647 0.0098039
439 1 0.6500000 0.4411765 0.0000000
440 1 0.6833333 0.4411765 0.0098039
441 1 0.6000000 0.4705882 0.0000000
442 1 0.6333333 0.4705882 0.0098039
443 1 0.6500000 0.5000000 0.0000000
444 1 0.6833333 0.5000000 0.0098039
445 1 0.6000000 0.5294118 0.0000000
446 1 0.6333333 0.5294118 0.0098039
447 1 0.6500000 0.5588235 0.0000000
448 1 0.6833333 0.5588235 0.0098039
449 1 0.6000000 0.5882353 0.0000000
450 1 0.6333333 0.5882353 0.0098039
451 1 0.6500000 0.6176471 0.0000000
452 1 0.6833333 0.6176471 0.0098039
453 1 0.6000000 0.6470588 0.0000000
454 1 0.6333333 0.6470588 0.0098039
455 1 0.6500000 0.6764706 0.0000000
456 1 0.6833333 0.6764706 0.0098039
457 1 0.6000000 0.7058824 0.0000000
458 1 0.6333333 0.7058824 0.0098039
459 1 0.6500000 0.7352941 0.0000000
460 1 0.6833333 0.7352941 0.0098039
461 1 0.6000000 0.7647059 0.0000000
462 1 0.6333333 0.7647059 0.0098039
463 1 0.6500000 0.7941176 0.0000000
464 1 0.6833333 0.7941176 0.0098039
465 1 0.6000000 0.8235294 0.0000000
466 1 0.6333333 0.8235294 0.0098039
467 1 0.6500000 0.8529412 0.0000000
468 1 0.6833333 0.8529412 0.0098039
469 1 0.6000000 0.8823529 0.0000000
470 1 0.6333333 0.8823529 0.0098039
471 1 0.6500000 0.9117647 0.0000000
472 1 0.6833333 0.9117647 0.0098039
473 1 0.6000000 0.9411765 0.0000000
474 1 0.6333333 0.9411765 0.0098039
475 1 0.6500000 0.9705882 0.0000000
476 1 0.6833333 0.9705882 0.0098039
477 1 0.7000000 0.0000000 0.0000000
478 1 0.7333333 0.0000000 0.0098039
479 1 0.7500000 0.0294118 0.0000000
480 1 0.7833333 0.0294118 0.0098039
481 1 0.7000000 0.0588235 0.0000000
482 1 0.7333333 0.0588235 0.0098039
483 1 0.7500000 0.0882353 0.0000000
484 1 0.7833333 0.0882353 0.0098039
485 1 0.7000000 0.1176471 0.0000000
486 1 0.7333333 0.1176471 0.0098039
487 1 0.7500000 0.1470588 0.0000000
488 1 0.7833333 0.1470588 0.0098039
489 1 0.7000000 0.1764706 0.0000000
490 1 0.7333333 0.1764706 0.0098039
491 1 0.7500000 0.2058824 0.0000000
492 1 0.7833333 0.2058824 0.0098039
493 1 0.7000000 0.2352941 0.0000000
494 1 0.7333333 0.2352941 0.0098039
495 1 0.7500000 0.2647059 0.0000000
496 1 0.7833333 0.2647059 0.0098039
497 1 0.7000000 0.2941176 0.0000000
498 1 0.7333333 0.2941176 0.0098039
499 1 0.7500000 0.3235294 0.0000000
500 1 0.7833333 0.3235294 0.0098039
501 1 0.7000000 0.3529412 0.0000000
502 1 0.7333333 0.3529412 0.0098039
503 1 0.7500000 0.3823529 0.0000000
504 1 0.7833333 0.3823529 0.0098039
505 1 0.7000000 0.4117647 0.0000000
506 1 0.7333333 0.4117647 0.0098039
507 1 0.7500000 0.4411765 0.0000000
508 1 0.7833333 0.4411765 0.0098039
509 1 0.7000000 0.4705882 0.0000000
510 1 0.7333333 0.4705882 0.0098039
511 1 0.7500000 0.5000000 0.0000000
512 1 0.7833333 0.5000000 0.0098039
513 1 0.7000000 0.5294118 0.0000000
514 1 0.7333333 0.5294118 0.0098039
515 1 0.7500000 0.5588235 0.0000000
516 1 0.7833333 0.5588235 0.0098039
517 1 0.7000000 0.5882353 0.0000000
518 1 0.7333333 0.5882353 0.0098039
519 1 0.7500000 0.6176471 0.0000000
520 1 0.7833333 0.6176471 0.0098039
521 1 0.7000000 0.6470588 0.0000000
522 1 0.7333333 0.6470588 0.0098039
523 1 0.7500000 0.6764706 0.0000000
524 1 0.7833333 0.6764706 0.0098039
525 1 0.7000000 0.7058824 0.0000000
526 1 0.7333333 0.7058824 0.0098039
527 1 0.7500000 0.7352941 0.0000000
528 1 0.7833333 0.7352941 0.0098039
529 1 0.7000000 0.7647059 0.0000000
530 1 0.7333333 0.7647059 0.0098039
531 1 0.7500000 0.7941176 0.0000000
532 1 0.7833333 0.7941176 0.0098039
533 1 0.7000000 0.8235294 0.0000000
534 1 0.7333333 0.8235294 0.0098039
535 1 0.7500000 0.8529412 0.0000000
536 1 0.7833333 0.8529412 0.0098039
537 1 0.7000000 0.8823529 0.0000000
538 1 0.7333333 0.8823529 0.0098039
539 1 0.7500000 0.9117647 0.0000000
540 1 0.7833333 0.9117647 0.0098039
541 1 0.7000000 0.9411765 0.0000000
542 1 0.7333333 0.9411765 0.0098039
543 1 0.7500000 0.9705882 0.0000000
544 1 0.7833333 0.9705882 0.0098039
545 1 0.8000000 0.0000000 0.0000000
546 1 0.8333333 0.0000000 0.0098039
547 1 0.8500000 0.0294118 0.0000000
548 1 0.8833333 0.0294118 0.0098039
549 1 0.8000000 0.0588235 0.0000000
550 1 0.8333333 0.0588235 0.0098039
551 1 0.8500000 0.0882353 0.0000000
552 1 0.8833333 0.0882353 0.0098039
553 1 0.8000000 0.1176471 0.0000000
554 1 0.8333333 0.1176471 0.0098039
555 1 0.8500000 0.1470588 0.0000000
556 1 0.8833333 0.1470588 0.0098039
557 1 0.8000000 0.1764706 0.0000000
558 1 0.8333333 0.1764706 0.0098039
559 1 0.8500000 0.2058824 0.0000000
560 1 0.8833333 0.2058824 0.0098039
561 1 0.8000000 0.2352941 0.0000000
562 1 0.8333333 0.2352941 0.0098039
563 1 0.8500000 0.2647059 0.0000000
564 1 0.8833333 0.2647059 0.0098039
565 1 0.8000000 0.2941176 0.0000000
566 1 0.8333333 0.2941176 0.0098039
567 1 0.8500000 0.3235294 0.0000000
568 1 0.8833333 0.3235294 0.0098039
569 1 0.8000000 0.3529412 0.0000000
570 1 0.8333333 0.3529412 0.0098039
571 1 0.8500000 0.3823529 0.0000000
572 1 0.8833333 0.3823529 0.0098039
573 1 0.8000000 0.4117647 0.0000000
574 1 0.8333333 0.4117647 0.0098039
575 1 0.8500000 0.4411765 0.0000000
576 1 0.8833333 0.4411765 0.0098039
577 1 0.8000000 0.4705882 0.0000000
578 1 0.8333333 0.4705882 0.0098039
579 1 0.8500000 0.5000000 0.0000000
580 1 0.8833333 0.5000000 0.0098039
581 1 0.8000000 0.5294118 0.0000000
582 1 0.8333333 0.5294118 0.0098039
583 1 0.8500000 0.5588235 0.0000000
584 1 0.8833333 0.5588235 0.0098039
585 1 0.8000000 0.5882353 0.0000000
586 1 0.8333333 0.5882353 0.0098039
587 1 0.8500000 0.6176471 0.0000000
588 1 0.8833333 0.6176471 0.0098039
589 1 0.8000000 0.6470588 0.0000000
590 1 0.8333333 0.6470588 0.0098039
591 1 0.8500000 0.6764706 0.0000000
592 1 0.8833333 0.6764706 0.0098039
593 1 0.8000000 0.7058824 0.0000000
594 1 0.8333333 0.7058824 0.0098039
595 1 0.8500000 0.7352941 0.0000000
596 1 0.8833333 0.7352941 0.0098039
597 1 0.8000000 0.7647059 0.0000000
598 1 0.8333333 0.7647059 0.0098039
599 1 0.8500000 0.7941176 0.0000000
600 1 0.8833333 0.7941176 0.0098039
601 1 0.8000000 0.8235294 0.0000000
602 1 0.8333333 0.8235294 0.0098039
603 1 0.8500000 0.8529412 0.0000000
604 1 0.8833333 0.8529412 0.0098039
605 1 0.8000000 0.8823529 0.0000000
606 1 0.8333333 0.8823529 0.0098039
607 1 0.8500000 0.9117647 0.0000000
608 1 0.8833333 0.9117647 0.0098039
609 1 0.8000000 0.9411765 0.0000000
610 1 0.8333333 0.9411765 0.0098039
611 1 0.8500000 0.9705882 0.0000000
612 1 0.8833333 0.9705882 0.0098039
613 1 0.9000000 0.0000000 0.0000000
614 1 0.9333333 0.0000000 0.0098039
615 1 0.9500000 0.0294118 0.0000000
616 1 0.9833333 0.0294118 0.0098039
617 1 0.9000000 0.0588235 0.0000000
618 1 0.9333333 0.0588235 0.0098039
619 1 0.9500000 0.0882353 0.0000000
620 1 0.9833333 0.0882353 0.0098039
621 1 0.9000000 0.1176471 0.0000000
622 1 0.9333333 0.1176471 0.0098039
623 1 0.9500000 0.1470588 0.0000000
624 1 0.9833333 0.1470588 0.0098039
625 1 0.9000000 0.1764706 0.0000000
626 1 0.9333333 0.1764706 0.0098039
627 1 0.9500000 0.2058824 0.0000000
628 1 0.9833333 0.2058824 0.0098039
629 1 0.9000000 0.2352941 0.0000000
630 1 0.9333333 0.2352941 0.0098039
631 1 0.9500000 0.2647059 0.0000000
632 1 0.9833333 0.2647059 0.0098039
633 1 0.9000000 0.2941176 0.0000000
634 1 0.9333333 0.2941176 0.0098039
635 1 0.9500000 0.3235294 0.0000000
636 1 0.9833333 0.3235294 0.0098039
637 1 0.9000000 0.3529412 0.0000000
638 1 0.9333333 0.3529412 0.0098039
639 1 0.9500000 0.3823529 0.0000000
640 1 0.9833333 0.3823529 0.0098039
641 1 0.9000000 0.4117647 0.0000000
642 1 0.9333333 0.4117647 0.0098039
643 1 0.9500000 0.4411765 0.0000000
644 1 0.9833333 0.4411765 0.0098039
645 1 0.9000000 0.4705882 0.0000000
646 1 0.9333333 0.4705882 0.0098039
647 1 0.9500000 0.5000000 0.0000000
648 1 0.9833333 0.5000000 0.0098039
649 1 0.9000000 0.5294118 0.0000000
650 1 0.9333333 0.5294118 0.0098039
651 1 0.9500000 0.5588235 0.0000000
652 1 0.9833333 0.5588235 0.0098039
653 1 0.9000000 0.5882353 0.0000000
654 1 0.9333333 0.5882353 0.0098039
655 1 0.9500000 0.6176471 0.0000000
656 1 0.9833333 0.6176471 0.0098039
657 1 0.9000000 0.6470588 0.0000000
658 1 0.9333333 0.6470588 0.0098039
659 1 0.9500000 0.6764706 0.0000000
660 1 0.9833333 0.6764706 0.0098039
661 1 0.9000000 0.7058824 0.0000000
662 1 0.9333333 0.7058824 0.0098039
663 1 0.9500000 0.7352941 0.0000000
664 1 0.9833333 0.7352941 0.0098039
665 1 0.9000000 0.7647059 0.0000000
666 1 0.9333333 0.7647059 0.0098039
667 1 0.9500000 0.7941176 0.0000000
668 1 0.9833333 0.7941176 0.0098039
669 1 0.9000000 0.8235294 0.0000000
670 1 0.9333333 0.8235294 0.0098039
671 1 0.9500000 0.8529412 0.0000000
672 1 0.9833333 0.8529412 0.0098039
673 1 0.9000000 0.8823529 0.0000000
674 1 0.9333333 0.8823529 0.0098039
675 1 0.9500000 0.9117647 0.0000000
676 1 0.9833333 0.9117647 0.0098039
677 1 0.9000000 0.9411765 0.0000000
678 1 0.9333333 0.9411765 0.0098039
679 1 0.9500000 0.9705882 0.0000000
680 1 0.9833333 0.9705882 0.0098039
681 1 0.0000000 0.0000000 0.0196078
682 1 0.0333333 0.0000000 0.0294118
683 1 0.0500000 0.0294118 0.0196078
684 1 0.0833333 0.0294118 0.0294118
685 1 0.0000000 0.0588235 0.0196078
686 1 0.0333333 0.0588235 0.0294118
687 1 0.0500000 0.0882353 0.0196078
688 1 0.0833333 0.0882353 0.0294118
689 1 0.0000000 0.1176471 0.0196078
690 1 0.0333333 0.1176471 0.0294118
691 1 0.0500000 0.1470588 0.0196078
692 1 0.0833333 0.1470588 0.0294118
693 1 0.0000000 0.1764706 0.0196078
694 1 0.0333333 0.1764706 0.0294118
695 1 0.0500000 0.2058824 0.0196078
696 1 0.0833333 0.2058824 0.0294118
697 1 0.0000000 0.2352941 0.0196078
698 1 0.0333333 0.2352941 0.0294118
699 1 0.0500000 0.2647059 0.0196078
700 1 0.0833333 0.2647059 0.0294118
701 1 0.0000000 0.2941176 0.0196078
702 1 0.0333333 0.2941176 0.0294118
703 1 0.0500000 0.3235294 0.0196078
704 1 0.0833333 0.3235294 0.0294118
705 1 0.0000000 0.3529412 0.0196078
706 1 0.0333333 0.3529412 0.0294118
707 1 0.0500000 0.3823529 0.0196078
708 1 0.0833333 0.3823529 0.0294118
709 1 0.0000000 0.4117647 0.0196078
710 1 0.0333333 0.4117647 0.0294118
711 1 0.0500000 0.4411765 0.0196078
712 1 0.0833333 0.4411765 0.0294118
713 1 0.0000000 0.4705882 0.0196078
714 1 0.0333333 0.4705882 0.0294118
715 1 0.0500000 0.5000000 0.0196078
716 1 0.0833333 0.5000000 0.0294118
717 1 0.0000000 0.5294118 0.0196078
718 1 0.0333333 0.5294118 0.0294118
719 1 0.0500000 0.5588235 0.0196078
720 1 0.0833333 0.5588235 0.0294118
721 1 0.0000000 0.5882353 0.0196078
722 1 0.0333333 0.5882353 0.0294118
723 1 0.0500000 0.6176471 0.0196078
724 1 0.0833333 0.6176471 0.0294118
725 1 0.0000000 0.6470588 0.0196078
726 1 0.0333333 0.6470588 0.0294118
727 1 0.0500000 0.6764706 0.0196078
728 1 0.0833333 0.6764706 0.0294118
729 1 0.0000000 0.7058824 0.0196078
730 1 0.0333333 0.7058824 0.0294118
731 1 0.0500000 0.7352941 0.0196078
732 1 0.0833333 0.7352941 0.0294118
733 1 0.0000000 0.7647059 0.0196078
734 1 0.0333333 0.7647059 0.0294118
735 1 0.0500000 0.7941176 0.0196078
736 1 0.0833333 0.7941176 0.0294118
737 1 0.0000000 0.8235294 0.0196078
738 1 0.0333333 0.8235294 0.0294118
739 1 0.0500000 0.8529412 0.0196078
740 1 0.0833333 0.8529412 0.0294118
741 1 0.0000000 0.8823529 0.0196078
742 1 0.0333333 0.8823529 0.0294118
743 1 0.0500000 0.9117647 0.0196078
744 1 0.0833333 0.9117647 0.0294118
745 1 0.0000000 0.9411765 0.0196078
746 1 0.0333333 0.9411765 0.0294118
747 1 0.0500000 0.9705882 0.0196078
748 1 0.0833333 0.9705882 0.0294118
749 1 0.1000000 0.0000000 0.0196078
750 1 0.1333333 0.0000000 0.0294118
751 1 0.1500000 0.0294118 0.0196078
752 1 0.1833333 0.0294118 0.0294118
753 1 0.1000000 0.0588235 0.0196078
754 1 0.1333333 0.0588235 0.0294118
755 1 0.1500000 0.0882353 0.0196078
756 1 0.1833333 0.0882353 0.0294118
757 1 0.1000000 0.1176471 0.0196078
758 1 0.1333333 0.1176471 0.0294118
759 1 0.1500000 0.1470588 0.0196078
760 1 0.1833333 0.1470588 0.0294118
761 1 0.1000000 0.1764706 0.0196078
762 1 0.1333333 0.1764706 0.0294118
763 1 0.1500000 0.2058824 0.0196078
764 1 0.1833333 0.2058824 0.0294118
765 1 0.1000000 0.2352941 0.0196078
766 1 0.1333333 0.2352941 0.0294118
767 1 0.1500000 0.2647059 0.0196078
768 1 0.1833333 0.2647059 0.0294118
769 1 0.1000000 0.2941176 0.0196078
770 1 0.1333333 0.2941176 0.0294118
771 1 0.1500000 0.3235294 0.0196078
772 1 0.1833333 0.3235294 0.0294118
773 1 0.1000000 0.3529412 0.0196078
774 1 0.1333333 0.3529412 0.0294118
775 1 0.1500000 0.3823529 0.0196078
776 1 0.1833333 0.3823529 0.0294118
777 1 0.1000000 0.4117647 0.0196078
778 1 0.1333333 0.4117647 0.0294118
779 1 0.1500000 0.4411765 0.0196078
780 1 0.1833333 0.4411765 0.0294118
781 1 0.1000000 0.4705882 0.0196078
782 1 0.1333333 0.4705882 0.0294118
783 1 0.1500000 0.5000000 0.0196078
784 1 0.1833333 0.5000000 0.0294118
785 1 0.1000000 0.5294118 0.0196078
786 1 0.1333333 0.5294118 0.0294118
787 1 0.1500000 0.5588235 0.0196078
788 1 0.1833333 0.5588235 0.0294118
789 1 0.1000000 0.5882353 0.0196078
790 1 0.1333333 0.5882353 0.0294118
791 1 0.1500000 0.6176471 0.0196078
792 1 0.1833333 0.6176471 0.0294118
793 1 0.1000000 0.6470588 0.0196078
794 1 0.1333333 0.6470588 0.0294118
795 1 0.1500000 0.6764706 0.0196078
796 1 0.1833333 0.6764706 0.0294118
797 1 0.1000000 0.7058824 0.0196078
798 1 0.1333333 0.7058824 0.0294118
799 1 0.1500000 0.7352941 0.0196078
800 1 0.1833333 0.7352941 0.0294118
801 1 0.1000000 0.7647059 0.0196078
802 1 0.1333333 0.7647059 0.0294118
803 1 0.1500000 0.7941176 0.0196078
804 1 0.1833333 0.7941176 0.0294118
805 1 0.1000000 0.8235294 0.0196078
806 1 0.1333333 0.8235294 0.0294118
807 1 0.1500000 0.8529412 0.0196078
808 1 0.1833333 0.8529412 0.0294118
809 1 0.1000000 0.8823529 0.0196078
810 1 0.1333333 0.8823529 0.0294118
811 1 0.1500000 0.9117647 0.0196078
812 1 0.1833333 0.9117647 0.0294118
813 1 0.1000000 0.9411765 0.0196078
814 1 0.1333333 0.9411765 0.0294118
815 1 0.1500000 0.9705882 0.0196078
816 1 0.1833333 0.9705882 0.0294118
817 1 0.2000000 0.0000000 0.0196078
818 1 0.2333333 0.0000000 0.0294118
819 1 0.2500000 0.0294118 0.0196078
820 1 0.2833333 0.0294118 0.0294118
821 1 0.2000000 0.0588235 0.0196078
822 1 0.2333333 0.0588235 0.0294118
823 1 0.2500000 0.0882353 0.0196078
824 1 0.2833333 0.0882353 0.0294118
825 1 0.2000000 0.1176471 0.0196078
826 1 0.2333333 0.1176471 0.0294118
827 1 0.2500000 0.1470588 0.0196078
828 1 0.2833333 0.1470588 0.0294118
829 1 0.2000000 0.1764706 0.0196078
830 1 0.2333333 0.1764706 0.0294118
831 1 0.2500000 0.2058824 0.0196078