ITEM: TIMESTEP
0
ITEM: NUMBER OF ATOMS
34680
ITEM: BOX BOUNDS pp pp pp
0.0  62.426 xlo xhi
0.0  61.271 ylo yhi
0.0 300.165 zlo zhi
ITEM: ATOMS id type xs ys zs
1 1 0.0000000 0.0000000 0.0000000
2 1 0.0333333 0.0000000 0.0098039
3 1 0.0500000 0.0294118 0.0000000
4 1 0.0833333 0.0294118 0.0098039
5 1 0.0000000 0.0000000 0.0196078
6 1 0.0333333 0.0000000 0.0294118
7 1 0.0500000 0.0294118 0.0196078
8 1 0.0833333 0.0294118 0.0294118
9 1 0.0000000 0.0000000 0.0392157
10 1 0.0333333 0.0000000 0.0490196
11 1 0.0500000 0.0294118 0.0392157
12 1 0.0833333 0.0294118 0.0490196
13 1 0.0000000 0.0000000 0.0588235
14 1 0.0333333 0.0000000 0.0686275
15 1 0.0500000 0.0294118 0.0588235
16 1 0.0833333 0.0294118 0.0686275
17 1 0.0000000 0.0000000 0.0784314
18 1 0.0333333 0.0000000 0.0882353
19 1 0.0500000 0.0294118 0.0784314
20 1 0.0833333 0.0294118 0.0882353
21 1 0.0000000 0.0000000 0.0980392
22 1 0.0333333 0.0000000 0.1078431
23 1 0.0500000 0.0294118 0.0980392
24 1 0.0833333 0.0294118 0.1078431
25 1 0.0000000 0.0000000 0.1176471
26 1 0.0333333 0.0000000 0.1274510
27 1 0.0500000 0.0294118 0.1176471
28 1 0.0833333 0.0294118 0.1274510
29 1 0.0000000 0.0000000 0.1372549
30 1 0.0333333 0.0000000 0.1470588
31 1 0.0500000 0.0294118 0.1372549
32 1 0.0833333 0.0294118 0.1470588
33 1 0.0000000 0.0000000 0.1568627
34 1 0.0333333 0.0000000 0.1666667
35 1 0.0500000 0.0294118 0.1568627
36 1 0.0833333 0.0294118 0.1666667
37 1 0.0000000 0.0000000 0.1764706
38 1 0.0333333 0.0000000 0.1862745
39 1 0.0500000 0.0294118 0.1764706
40 1 0.0833333 0.0294118 0.1862745
41 1 0.0000000 0.0000000 0.1960784
42 1 0.0333333 0.0000000 0.2058824
43 1 0.0500000 0.0294118 0.1960784
44 1 0.0833333 0.0294118 0.2058824
45 1 0.0000000 0.0000000 0.2156863
46 1 0.0333333 0.0000000 0.2254902
47 1 0.0500000 0.0294118 0.2156863
48 1 0.0833333 0.0294118 0.2254902
49 1 0.0000000 0.0000000 0.2352941
50 1 0.0333333 0.0000000 0.2450980
51 1 0.0500000 0.0294118 0.2352941
52 1 0.0833333 0.0294118 0.2450980
53 1 0.0000000 0.0000000 0.2549020
54 1 0.0333333 0.0000000 0.2647059
55 1 0.0500000 0.0294118 0.2549020
56 1 0.0833333 0.0294118 0.2647059
57 1 0.0000000 0.0000000 0.2745098
58 1 0.0333333 0.0000000 0.2843137
59 1 0.0500000 0.0294118 0.2745098
60 1 0.0833333 0.0294118 0.2843137
61 1 0.0000000 0.0000000 0.2941176
62 1 0.0333333 0.0000000 0.3039216
63 1 0.0500000 0.0294118 0.2941176
64 1 0.0833333 0.0294118 0.3039216
65 1 0.0000000 0.0000000 0.3137255
66 1 0.0333333 0.0000000 0.3235294
67 1 0.0500000 0.0294118 0.3137255
68 1 0.0833333 0.0294118 0.3235294
69 1 0.0000000 0.0000000 0.3333333
70 1 0.0333333 0.0000000 0.3431373
71 1 0.0500000 0.0294118 0.3333333
72 1 0.0833333 0.0294118 0.3431373
73 1 0.0000000 0.0000000 0.3529412
74 1 0.0333333 0.0000000 0.3627451
75 1 0.0500000 0.0294118 0.3529412
76 1 0.0833333 0.0294118 0.3627451
77 1 0.0000000 0.0000000 0.3725490
78 1 0.0333333 0.0000000 0.3823529
79 1 0.0500000 0.0294118 0.3725490
80 1 0.0833333 0.0294118 0.3823529
81 1 0.0000000 0.0000000 0.3921569
82 1 0.0333333 0.0000000 0.4019608
83 1 0.0500000 0.0294118 0.3921569
84 1 0.0833333 0.0294118 0.4019608
85 1 0.0000000 0.0000000 0.4117647
86 1 0.0333333 0.0000000 0.4215686
87 1 0.0500000 0.0294118 0.4117647
88 1 0.0833333 0.0294118 0.4215686
89 1 0.0000000 0.0000000 0.4313725
90 1 0.0333333 0.0000000 0.4411765
91 1 0.0500000 0.0294118 0.4313725
92 1 0.0833333 0.0294118 0.4411765
93 1 0.0000000 0.0000000 0.4509804
94 1 0.0333333 0.0000000 0.4607843
95 1 0.0500000 0.0294118 0.4509804
96 1 0.0833333 0.0294118 0.4607843
97 1 0.0000000 0.0000000 0.4705882
98 1 0.0333333 0.0000000 0.4803922
99 1 0.0500000 0.0294118 0.4705882
100 1 0.0833333 0.0294118 0.4803922
101 1 0.0000000 0.0000000 0.4901961
102 1 0.0333333 0.0000000 0.5000000
103 1 0.0500000 0.0294118 0.4901961
104 1 0.0833333 0.0294118 0.5000000
105 1 0.0000000 0.0000000 0.5098039
106 1 0.0333333 0.0000000 0.5196078
107 1 0.0500000 0.0294118 0.5098039
108 1 0.0833333 0.0294118 0.5196078
109 1 0.0000000 0.0000000 0.5294118
110 1 0.0333333 0.0000000 0.5392157
111 1 0.0500000 0.0294118 0.5294118
112 1 0.0833333 0.0294118 0.5392157
113 1 0.0000000 0.0000000 0.5490196
114 1 0.0333333 0.0000000 0.5588235
115 1 0.0500000 0.0294118 0.5490196
116 1 0.0833333 0.0294118 0.5588235
117 1 0.0000000 0.0000000 0.5686275
118 1 0.0333333 0.0000000 0.5784314
119 1 0.0500000 0.0294118 0.5686275
120 1 0.0833333 0.0294118 0.5784314
121 1 0.0000000 0.0000000 0.5882353
122 1 0.0333333 0.0000000 0.5980392
123 1 0.0500000 0.0294118 0.5882353
124 1 0.0833333 0.0294118 0.5980392
125 1 0.0000000 0.0000000 0.6078431
126 1 0.0333333 0.0000000 0.6176471
127 1 0.0500000 0.0294118 0.6078431
128 1 0.0833333 0.0294118 0.6176471
129 1 0.0000000 0.0000000 0.6274510
130 1 0.0333333 0.0000000 0.6372549
131 1 0.0500000 0.0294118 0.6274510
132 1 0.0833333 0.0294118 0.6372549
133 1 0.0000000 0.0000000 0.6470588
134 1 0.0333333 0.0000000 0.6568627
135 1 0.0500000 0.0294118 0.6470588
136 1 0.0833333 0.0294118 0.6568627
137 1 0.0000000 0.0000000 0.6666667
138 1 0.0333333 0.0000000 0.6764706
139 1 0.0500000 0.0294118 0.6666667
140 1 0.0833333 0.0294118 0.6764706
141 1 0.0000000 0.0000000 0.6862745
142 1 0.0333333 0.0000000 0.6960784
143 1 0.0500000 0.0294118 0.6862745
144 1 0.0833333 0.0294118 0.6960784
145 1 0.0000000 0.0000000 0.7058824
146 1 0.0333333 0.0000000 0.7156863
147 1 0.0500000 0.0294118 0.7058824
148 1 0.0833333 0.0294118 0.7156863
149 1 0.0000000 0.0000000 0.7254902
150 1 0.0333333 0.0000000 0.7352941
151 1 0.0500000 0.0294118 0.7254902
152 1 0.0833333 0.0294118 0.7352941
153 1 0.0000000 0.0000000 0.7450980
154 1 0.0333333 0.0000000 0.7549020
155 1 0.0500000 0.0294118 0.7450980
156 1 0.0833333 0.0294118 0.7549020
157 1 0.0000000 0.0000000 0.7647059
158 1 0.0333333 0.0000000 0.7745098
159 1 0.0500000 0.0294118 0.7647059
160 1 0.0833333 0.0294118 0.7745098
161 1 0.0000000 0.0000000 0.7843137
162 1 0.0333333 0.0000000 0.7941176
163 1 0.0500000 0.0294118 0.7843137
164 1 0.0833333 0.0294118 0.7941176
165 1 0.0000000 0.0000000 0.8039216
166 1 0.0333333 0.0000000 0.8137255
167 1 0.0500000 0.0294118 0.8039216
168 1 0.0833333 0.0294118 0.8137255
169 1 0.0000000 0.0000000 0.8235294
170 1 0.0333333 0.0000000 0.8333333
171 1 0.0500000 0.0294118 0.8235294
172 1 0.0833333 0.0294118 0.8333333
173 1 0.0000000 0.0000000 0.8431373
174 1 0.0333333 0.0000000 0.8529412
175 1 0.0500000 0.0294118 0.8431373
176 1 0.0833333 0.0294118 0.8529412
177 1 0.0000000 0.0000000 0.8627451
178 1 0.0333333 0.0000000 0.8725490
179 1 0.0500000 0.0294118 0.8627451
180 1 0.0833333 0.0294118 0.8725490
181 1 0.0000000 0.0000000 0.8823529
182 1 0.0333333 0.0000000 0.8921569
183 1 0.0500000 0.0294118 0.8823529
184 1 0.0833333 0.0294118 0.8921569
185 1 0.0000000 0.0000000 0.9019608
186 1 0.0333333 0.0000000 0.9117647
187 1 0.0500000 0.0294118 0.9019608
188 1 0.0833333 0.0294118 0.9117647
189 1 0.0000000 0.0000000 0.9215686
190 1 0.0333333 0.0000000 0.9313725
191 1 0.0500000 0.0294118 0.9215686
192 1 0.0833333 0.0294118 0.9313725
193 1 0.0000000 0.0000000 0.9411765
194 1 0.0333333 0.0000000 0.9509804
195 1 0.0500000 0.0294118 0.9411765
196 1 0.0833333 0.0294118 0.9509804
197 1 0.0000000 0.0000000 0.9607843
198 1 0.0333333 0.0000000 0.9705882
199 1 0.0500000 0.0294118 0.9607843
200 1 0.0833333 0.0294118 0.9705882
201 1 0.0000000 0.0000000 0.9803922
202 1 0.0333333 0.0000000 0.9901961
203 1 0.0500000 0.0294118 0.9803922
204 1 0.0833333 0.0294118 0.9901961
205 1 0.0000000 0.0588235 0.0000000
206 1 0.0333333 0.0588235 0.0098039
207 1 0.0500000 0.0882353 0.0000000
208 1 0.0833333 0.0882353 0.0098039
209 1 0.0000000 0.0588235 0.0196078
210 1 0.0333333 0.0588235 0.0294118
211 1 0.0500000 0.0882353 0.0196078
212 1 0.0833333 0.0882353 0.0294118
213 1 0.0000000 0.0588235 0.0392157
214 1 0.0333333 0.0588235 0.0490196
215 1 0.0500000 0.0882353 0.0392157
216 1 0.0833333 0.0882353 0.0490196
217 1 0.0000000 0.0588235 0.0588235
218 1 0.0333333 0.0588235 0.0686275
219 1 0.0500000 0.0882353 0.0588235
220 1 0.0833333 0.0882353 0.0686275
221 1 0.0000000 0.0588235 0.0784314
222 1 0.0333333 0.0588235 0.0882353
223 1 0.0500000 0.0882353 0.0784314
224 1 0.0833333 0.0882353 0.0882353
225 1 0.0000000 0.0588235 0.0980392
226 1 0.0333333 0.0588235 0.1078431
227 1 0.0500000 0.0882353 0.0980392
228 1 0.0833333 0.0882353 0.1078431
229 1 0.0000000 0.0588235 0.1176471
230 1 0.0333333 0.0588235 0.1274510
231 1 0.0500000 0.0882353 0.1176471
232 1 0.0833333 0.0882353 0.1274510
233 1 0.0000000 0.0588235 0.1372549
234 1 0.0333333 0.0588235 0.1470588
235 1 0.0500000 0.0882353 0.1372549
236 1 0.0833333 0.0882353 0.1470588
237 1 0.0000000 0.0588235 0.1568627
238 1 0.0333333 0.0588235 0.1666667
239 1 0.0500000 0.0882353 0.1568627
240 1 0.0833333 0.0882353 0.1666667
241 1 0.0000000 0.0588235 0.1764706
242 1 0.0333333 0.0588235 0.1862745
243 1 0.0500000 0.0882353 0.1764706
244 1 0.0833333 0.0882353 0.1862745
245 1 0.0000000 0.0588235 0.1960784
246 1 0.0333333 0.0588235 0.2058824
247 1 0.0500000 0.0882353 0.1960784
248 1 0.0833333 0.0882353 0.2058824
249 1 0.0000000 0.0588235 0.2156863
250 1 0.0333333 0.0588235 0.2254902
251 1 0.0500000 0.0882353 0.2156863
252 1 0.0833333 0.0882353 0.2254902
253 1 0.0000000 0.0588235 0.2352941
254 1 0.0333333 0.0588235 0.2450980
255 1 0.0500000 0.0882353 0.2352941
256 1 0.0833333 0.0882353 0.2450980
257 1 0.0000000 0.0588235 0.2549020
258 1 0.0333333 0.0588235 0.2647059
259 1 0.0500000 0.0882353 0.2549020
260 1 0.0833333 0.0882353 0.2647059
261 1 0.0000000 0.0588235 0.2745098
262 1 0.0333333 0.0588235 0.2843137
263 1 0.0500000 0.0882353 0.2745098
264 1 0.0833333 0.0882353 0.2843137
265 1 0.0000000 0.0588235 0.2941176
266 1 0.0333333 0.0588235 0.3039216
267 1 0.0500000 0.0882353 0.2941176
268 1 0.0833333 0.0882353 0.3039216
269 1 0.0000000 0.0588235 0.3137255
270 1 0.0333333 0.0588235 0.3235294
271 1 0.0500000 0.0882353 0.3137255
272 1 0.0833333 0.0882353 0.3235294
273 1 0.0000000 0.0588235 0.3333333
274 1 0.0333333 0.0588235 0.3431373
275 1 0.0500000 0.0882353 0.3333333
276 1 0.0833333 0.0882353 0.3431373
277 1 0.0000000 0.0588235 0.3529412
278 1 0.0333333 0.0588235 0.3627451
279 1 0.0500000 0.0882353 0.3529412
280 1 0.0833333 0.0882353 0.3627451
281 1 0.0000000 0.0588235 0.3725490
282 1 0.0333333 0.0588235 0.3823529
283 1 0.0500000 0.0882353 0.3725490
284 1 0.0833333 0.0882353 0.3823529
285 1 0.0000000 0.0588235 0.3921569
286 1 0.0333333 0.0588235 0.4019608
287 1 0.0500000 0.0882353 0.3921569
288 1 0.0833333 0.0882353 0.4019608
289 1 0.0000000 0.0588235 0.4117647
290 1 0.0333333 0.0588235 0.4215686
291 1 0.0500000 0.0882353 0.4117647
292 1 0.0833333 0.0882353 0.4215686
293 1 0.0000000 0.0588235 0.4313725
294 1 0.0333333 0.0588235 0.4411765
295 1 0.0500000 0.0882353 0.4313725
296 1 0.0833333 0.0882353 0.4411765
297 1 0.0000000 0.0588235 0.4509804
298 1 0.0333333 0.0588235 0.4607843
299 1 0.0500000 0.0882353 0.4509804
300 1 0.0833333 0.0882353 0.4607843
301 1 0.0000000 0.0588235 0.4705882
302 1 0.0333333 0.0588235 0.4803922
303 1 0.0500000 0.0882353 0.4705882
304 1 0.0833333 0.0882353 0.4803922
305 1 0.0000000 0.0588235 0.4901961
306 1 0.0333333 0.0588235 0.5000000
307 1 0.0500000 0.0882353 0.4901961
308 1 0.0833333 0.0882353 0.5000000
309 1 0.0000000 0.0588235 0.5098039
310 1 0.0333333 0.0588235 0.5196078
311 1 0.0500000 0.0882353 0.5098039
312 1 0.0833333 0.0882353 0.5196078
313 1 0.0000000 0.0588235 0.5294118
314 1 0.0333333 0.0588235 0.5392157
315 1 0.0500000 0.0882353 0.5294118
316 1 0.0833333 0.0882353 0.5392157
317 1 0.0000000 0.0588235 0.5490196
318 1 0.0333333 0.0588235 0.5588235
319 1 0.0500000 0.0882353 0.5490196
320 1 0.0833333 0.0882353 0.5588235
321 1 0.0000000 0.0588235 0.5686275
322 1 0.0333333 0.0588235 0.5784314
323 1 0.0500000 0.0882353 0.5686275
324 1 0.0833333 0.0882353 0.5784314
325 1 0.0000000 0.0588235 0.5882353
326 1 0.0333333 0.0588235 0.5980392
327 1 0.0500000 0.0882353 0.5882353
328 1 0.0833333 0.0882353 0.5980392
329 1 0.0000000 0.0588235 0.6078431
330 1 0.0333333 0.0588235 0.6176471
331 1 0.0500000 0.0882353 0.6078431
332 1 0.0833333 0.0882353 0.6176471
333 1 0.0000000 0.0588235 0.6274510
334 1 0.0333333 0.0588235 0.6372549
335 1 0.0500000 0.0882353 0.6274510
336 1 0.0833333 0.0882353 0.6372549
337 1 0.0000000 0.0588235 0.6470588
338 1 0.0333333 0.0588235 0.6568627
339 1 0.0500000 0.0882353 0.6470588
340 1 0.0833333 0.0882353 0.6568627
341 1 0.0000000 0.0588235 0.6666667
342 1 0.0333333 0.0588235 0.6764706
343 1 0.0500000 0.0882353 0.6666667
344 1 0.0833333 0.0882353 0.6764706
345 1 0.0000000 0.0588235 0.6862745
346 1 0.0333333 0.0588235 0.6960784
347 1 0.0500000 0.0882353 0.6862745
348 1 0.0833333 0.0882353 0.6960784
349 1 0.0000000 0.0588235 0.7058824
350 1 0.0333333 0.0588235 0.7156863
351 1 0.0500000 0.0882353 0.7058824
352 1 0.0833333 0.0882353 0.7156863
353 1 0.0000000 0.0588235 0.7254902
354 1 0.0333333 0.0588235 0.7352941
355 1 0.0500000 0.0882353 0.7254902
356 1 0.0833333 0.0882353 0.7352941
357 1 0.0000000 0.0588235 0.7450980
358 1 0.0333333 0.0588235 0.7549020
359 1 0.0500000 0.0882353 0.7450980
360 1 0.0833333 0.0882353 0.7549020
361 1 0.0000000 0.0588235 0.7647059
362 1 0.0333333 0.0588235 0.7745098
363 1 0.0500000 0.0882353 0.7647059
364 1 0.0833333 0.0882353 0.7745098
365 1 0.0000000 0.0588235 0.7843137
366 1 0.0333333 0.0588235 0.7941176
367 1 0.0500000 0.0882353 0.7843137
368 1 0.0833333 0.0882353 0.7941176
369 1 0.0000000 0.0588235 0.8039216
370 1 0.0333333 0.0588235 0.8137255
371 1 0.0500000 0.0882353 0.8039216
372 1 0.0833333 0.0882353 0.8137255
373 1 0.0000000 0.0588235 0.8235294
374 1 0.0333333 0.0588235 0.8333333
375 1 0.0500000 0.0882353 0.8235294
376 1 0.0833333 0.0882353 0.8333333
377 1 0.0000000 0.0588235 0.8431373
378 1 0.0333333 0.0588235 0.8529412
379 1 0.0500000 0.0882353 0.8431373
380 1 0.0833333 0.0882353 0.8529412
381 1 0.0000000 0.0588235 0.8627451
382 1 0.0333333 0.0588235 0.8725490
383 1 0.0500000 0.0882353 0.8627451
384 1 0.0833333 0.0882353 0.8725490
385 1 0.0000000 0.0588235 0.8823529
386 1 0.0333333 0.0588235 0.8921569
387 1 0.0500000 0.0882353 0.8823529
388 1 0.0833333 0.0882353 0.8921569
389 1 0.0000000 0.0588235 0.9019608
390 1 0.0333333 0.0588235 0.9117647
391 1 0.0500000 0.0882353 0.9019608
392 1 0.0833333 0.0882353 0.9117647
393 1 0.0000000 0.0588235 0.9215686
394 1 0.0333333 0.0588235 0.9313725
395 1 0.0500000 0.0882353 0.9215686
396 1 0.0833333 0.0882353 0.9313725
397 1 0.0000000 0.0588235 0.9411765
398 1 0.0333333 0.0588235 0.9509804
399 1 0.0500000 0.0882353 0.9411765
400 1 0.0833333 0.0882353 0.9509804
401 1 0.0000000 0.0588235 0.9607843
402 1 0.0333333 0.0588235 0.9705882
403 1 0.0500000 0.0882353 0.9607843
404 1 0.0833333 0.0882353 0.9705882
405 1 0.0000000 0.0588235 0.9803922
406 1 0.0333333 0.0588235 0.9901961
407 1 0.0500000 0.0882353 0.9803922
408 1 0.0833333 0.0882353 0.9901961
409 1 0.0000000 0.1176471 0.0000000
410 1 0.0333333 0.1176471 0.0098039
411 1 0.0500000 0.1470588 0.0000000
412 1 0.0833333 0.1470588 0.0098039
413 1 0.0000000 0.1176471 0.0196078
414 1 0.0333333 0.1176471 0.0294118
415 1 0.0500000 0.1470588 0.0196078
416 1 0.0833333 0.1470588 0.0294118
417 1 0.0000000 0.1176471 0.0392157
418 1 0.0333333 0.1176471 0.0490196
419 1 0.0500000 0.1470588 0.0392157
420 1 0.0833333 0.1470588 0.0490196
421 1 0.0000000 0.1176471 0.0588235
422 1 0.0333333 0.1176471 0.0686275
423 1 0.0500000 0.1470588 0.0588235
424 1 0.0833333 0.1470588 0.0686275
425 1 0.0000000 0.1176471 0.0784314
426 1 0.0333333 0.1176471 0.0882353
427 1 0.0500000 0.1470588 0.0784314
428 1 0.0833333 0.1470588 0.0882353
429 1 0.0000000 0.1176471 0.0980392
430 1 0.0333333 0.1176471 0.1078431
431 1 0.0500000 0.1470588 0.0980392
432 1 0.0833333 0.1470588 0.1078431
433 1 0.0000000 0.1176471 0.1176471
434 1 0.0333333 0.1176471 0.1274510
435 1 0.0500000 0.1470588 0.1176471
436 1 0.0833333 0.1470588 0.1274510
437 1 0.0000000 0.1176471 0.1372549
438 1 0.0333333 0.1176471 0.1470588
439 1 0.0500000 0.1470588 0.1372549
440 1 0.0833333 0.1470588 0.1470588
441 1 0.0000000 0.1176471 0.1568627
442 1 0.0333333 0.1176471 0.1666667
443 1 0.0500000 0.1470588 0.1568627
444 1 0.0833333 0.1470588 0.1666667
445 1 0.0000000 0.1176471 0.1764706
446 1 0.0333333 0.1176471 0.1862745
447 1 0.0500000 0.1470588 0.1764706
448 1 0.0833333 0.1470588 0.1862745
449 1 0.0000000 0.1176471 0.1960784
450 1 0.0333333 0.1176471 0.2058824
451 1 0.0500000 0.1470588 0.1960784
452 1 0.0833333 0.1470588 0.2058824
453 1 0.0000000 0.1176471 0.2156863
454 1 0.0333333 0.1176471 0.2254902
455 1 0.0500000 0.1470588 0.2156863
456 1 0.0833333 0.1470588 0.2254902
457 1 0.0000000 0.1176471 0.2352941
458 1 0.0333333 0.1176471 0.2450980
459 1 0.0500000 0.1470588 0.2352941
460 1 0.0833333 0.1470588 0.2450980
461 1 0.0000000 0.1176471 0.2549020
462 1 0.0333333 0.1176471 0.2647059
463 1 0.0500000 0.1470588 0.2549020
464 1 0.0833333 0.1470588 0.2647059
465 1 0.0000000 0.1176471 0.2745098
466 1 0.0333333 0.1176471 0.2843137
467 1 0.0500000 0.1470588 0.2745098
468 1 0.0833333 0.1470588 0.2843137
469 1 0.0000000 0.1176471 0.2941176
470 1 0.0333333 0.1176471 0.3039216
471 1 0.0500000 0.1470588 0.2941176
472 1 0.0833333 0.1470588 0.3039216
473 1 0.0000000 0.1176471 0.3137255
474 1 0.0333333 0.1176471 0.3235294
475 1 0.0500000 0.1470588 0.3137255
476 1 0.0833333 0.1470588 0.3235294
477 1 0.0000000 0.1176471 0.3333333
478 1 0.0333333 0.1176471 0.3431373
479 1 0.0500000 0.1470588 0.3333333
480 1 0.0833333 0.1470588 0.3431373
481 1 0.0000000 0.1176471 0.3529412
482 1 0.0333333 0.1176471 0.3627451
483 1 0.0500000 0.1470588 0.3529412
484 1 0.0833333 0.1470588 0.3627451
485 1 0.0000000 0.1176471 0.3725490
486 1 0.0333333 0.1176471 0.3823529
487 1 0.0500000 0.1470588 0.3725490
488 1 0.0833333 0.1470588 0.3823529
489 1 0.0000000 0.1176471 0.3921569
490 1 0.0333333 0.1176471 0.4019608
491 1 0.0500000 0.1470588 0.3921569
492 1 0.0833333 0.1470588 0.4019608
493 1 0.0000000 0.1176471 0.4117647
494 1 0.0333333 0.1176471 0.4215686
495 1 0.0500000 0.1470588 0.4117647
496 1 0.0833333 0.1470588 0.4215686
497 1 0.0000000 0.1176471 0.4313725
498 1 0.0333333 0.1176471 0.4411765
499 1 0.0500000 0.1470588 0.4313725
500 1 0.0833333 0.1470588 0.4411765
501 1 0.0000000 0.1176471 0.4509804
502 1 0.0333333 0.1176471 0.4607843
503 1 0.0500000 0.1470588 0.4509804
504 1 0.0833333 0.1470588 0.4607843
505 1 0.0000000 0.1176471 0.4705882
506 1 0.0333333 0.1176471 0.4803922
507 1 0.0500000 0.1470588 0.4705882
508 1 0.0833333 0.1470588 0.4803922
509 1 0.0000000 0.1176471 0.4901961
510 1 0.0333333 0.1176471 0.5000000
511 1 0.0500000 0.1470588 0.4901961
512 1 0.0833333 0.1470588 0.5000000
513 1 0.0000000 0.1176471 0.5098039
514 1 0.0333333 0.1176471 0.5196078
515 1 0.0500000 0.1470588 0.5098039
516 1 0.0833333 0.1470588 0.5196078
517 1 0.0000000 0.1176471 0.5294118
518 1 0.0333333 0.1176471 0.5392157
519 1 0.0500000 0.1470588 0.5294118
520 1 0.0833333 0.1470588 0.5392157
521 1 0.0000000 0.1176471 0.5490196
522 1 0.0333333 0.1176471 0.5588235
523 1 0.0500000 0.1470588 0.5490196
524 1 0.0833333 0.1470588 0.5588235
525 1 0.0000000 0.1176471 0.5686275
526 1 0.0333333 0.1176471 0.5784314
527 1 0.0500000 0.1470588 0.5686275
528 1 0.0833333 0.1470588 0.5784314
529 1 0.0000000 0.1176471 0.5882353
530 1 0.0333333 0.1176471 0.5980392
531 1 0.0500000 0.1470588 0.5882353
532 1 0.0833333 0.1470588 0.5980392
533 1 0.0000000 0.1176471 0.6078431
534 1 0.0333333 0.1176471 0.6176471
535 1 0.0500000 0.1470588 0.6078431
536 1 0.0833333 0.1470588 0.6176471
537 1 0.0000000 0.1176471 0.6274510
538 1 0.0333333 0.1176471 0.6372549
539 1 0.0500000 0.1470588 0.6274510
540 1 0.0833333 0.1470588 0.6372549
541 1 0.0000000 0.1176471 0.6470588
542 1 0.0333333 0.1176471 0.6568627
543 1 0.0500000 0.1470588 0.6470588
544 1 0.0833333 0.1470588 0.6568627
545 1 0.0000000 0.1176471 0.6666667
546 1 0.0333333 0.1176471 0.6764706
547 1 0.0500000 0.1470588 0.6666667
548 1 0.0833333 0.1470588 0.6764706
549 1 0.0000000 0.1176471 0.6862745
550 1 0.0333333 0.1176471 0.6960784
551 1 0.0500000 0.1470588 0.6862745
552 1 0.0833333 0.1470588 0.6960784
553 1 0.0000000 0.1176471 0.7058824
554 1 0.0333333 0.1176471 0.7156863
555 1 0.0500000 0.1470588 0.7058824
556 1 0.0833333 0.1470588 0.7156863
557 1 0.0000000 0.1176471 0.7254902
558 1 0.0333333 0.1176471 0.7352941
559 1 0.0500000 0.1470588 0.7254902
560 1 0.0833333 0.1470588 0.7352941
561 1 0.0000000 0.1176471 0.7450980
562 1 0.0333333 0.1176471 0.7549020
563 1 0.0500000 0.1470588 0.7450980
564 1 0.0833333 0.1470588 0.7549020
565 1 0.0000000 0.1176471 0.7647059
566 1 0.0333333 0.1176471 0.7745098
567 1 0.0500000 0.1470588 0.7647059
568 1 0.0833333 0.1470588 0.7745098
569 1 0.0000000 0.1176471 0.7843137
570 1 0.0333333 0.1176471 0.7941176
571 1 0.0500000 0.1470588 0.7843137
572 1 0.0833333 0.1470588 0.7941176
573 1 0.0000000 0.1176471 0.8039216
574 1 0.0333333 0.1176471 0.8137255
575 1 0.0500000 0.1470588 0.8039216
576 1 0.0833333 0.1470588 0.8137255
577 1 0.0000000 0.1176471 0.8235294
578 1 0.0333333 0.1176471 0.8333333
579 1 0.0500000 0.1470588 0.8235294
580 1 0.0833333 0.1470588 0.8333333
581 1 0.0000000 0.1176471 0.8431373
582 1 0.0333333 0.1176471 0.8529412
583 1 0.0500000 0.1470588 0.8431373
584 1 0.0833333 0.1470588 0.8529412
585 1 0.0000000 0.1176471 0.8627451
586 1 0.0333333 0.1176471 0.8725490
587 1 0.0500000 0.1470588 0.8627451
588 1 0.0833333 0.1470588 0.8725490
589 1 0.0000000 0.1176471 0.8823529
590 1 0.0333333 0.1176471 0.8921569
591 1 0.0500000 0.1470588 0.8823529
592 1 0.0833333 0.1470588 0.8921569
593 1 0.0000000 0.1176471 0.9019608
594 1 0.0333333 0.1176471 0.9117647
595 1 0.0500000 0.1470588 0.9019608
596 1 0.0833333 0.1470588 0.9117647
597 1 0.0000000 0.1176471 0.9215686
598 1 0.0333333 0.1176471 0.9313725
599 1 0.0500000 0.1470588 0.9215686
600 1 0.0833333 0.1470588 0.9313725
601 1 0.0000000 0.1176471 0.9411765
602 1 0.0333333 0.1176471 0.9509804
603 1 0.0500000 0.1470588 0.9411765
604 1 0.0833333 0.1470588 0.9509804
605 1 0.0000000 0.1176471 0.9607843
606 1 0.0333333 0.1176471 0.9705882
607 1 0.0500000 0.1470588 0.9607843
608 1 0.0833333 0.1470588 0.9705882
609 1 0.0000000 0.1176471 0.9803922
610 1 0.0333333 0.1176471 0.9901961
611 1 0.0500000 0.1470588 0.9803922
612 1 0.0833333 0.1470588 0.9901961
613 1 0.0000000 0.1764706 0.0000000
614 1 0.0333333 0.1764706 0.0098039
615 1 0.0500000 0.2058824 0.0000000
616 1 0.0833333 0.2058824 0.0098039
617 1 0.0000000 0.1764706 0.0196078
618 1 0.0333333 0.1764706 0.0294118
619 1 0.0500000 0.2058824 0.0196078
620 1 0.0833333 0.2058824 0.0294118
621 1 0.0000000 0.1764706 0.0392157
622 1 0.0333333 0.1764706 0.0490196
623 1 0.0500000 0.2058824 0.0392157
624 1 0.0833333 0.2058824 0.0490196
625 1 0.0000000 0.1764706 0.0588235
626 1 0.0333333 0.1764706 0.0686275
627 1 0.0500000 0.2058824 0.0588235
628 1 0.0833333 0.2058824 0.0686275
629 1 0.0000000 0.1764706 0.0784314
630 1 0.0333333 0.1764706 0.0882353
631 1 0.0500000 0.2058824 0.0784314
632 1 0.0833333 0.2058824 0.0882353
633 1 0.0000000 0.1764706 0.0980392
634 1 0.0333333 0.1764706 0.1078431
635 1 0.0500000 0.2058824 0.0980392
636 1 0.0833333 0.2058824 0.1078431
637 1 0.0000000 0.1764706 0.1176471
638 1 0.0333333 0.1764706 0.1274510
639 1 0.0500000 0.2058824 0.1176471
640 1 0.0833333 0.2058824 0.1274510
641 1 0.0000000 0.1764706 0.1372549
642 1 0.0333333 0.1764706 0.1470588
643 1 0.0500000 0.2058824 0.1372549
644 1 0.0833333 0.2058824 0.1470588
645 1 0.0000000 0.1764706 0.1568627
646 1 0.0333333 0.1764706 0.1666667
647 1 0.0500000 0.2058824 0.1568627
648 1 0.0833333 0.2058824 0.1666667
649 1 0.0000000 0.1764706 0.1764706
650 1 0.0333333 0.1764706 0.1862745
651 1 0.0500000 0.2058824 0.1764706
652 1 0.0833333 0.2058824 0.1862745
653 1 0.0000000 0.1764706 0.1960784
654 1 0.0333333 0.1764706 0.2058824
655 1 0.0500000 0.2058824 0.1960784
656 1 0.0833333 0.2058824 0.2058824
657 1 0.0000000 0.1764706 0.2156863
658 1 0.0333333 0.1764706 0.2254902
659 1 0.0500000 0.2058824 0.2156863
660 1 0.0833333 0.2058824 0.2254902
661 1 0.0000000 0.1764706 0.2352941
662 1 0.0333333 0.1764706 0.2450980
663 1 0.0500000 0.2058824 0.2352941
664 1 0.0833333 0.2058824 0.2450980
665 1 0.0000000 0.1764706 0.2549020
666 1 0.0333333 0.1764706 0.2647059
667 1 0.0500000 0.2058824 0.2549020
668 1 0.0833333 0.2058824 0.2647059
669 1 0.0000000 0.1764706 0.2745098
670 1 0.0333333 0.1764706 0.2843137
671 1 0.0500000 0.2058824 0.2745098
672 1 0.0833333 0.2058824 0.2843137
673 1 0.0000000 0.1764706 0.2941176
674 1 0.0333333 0.1764706 0.3039216
675 1 0.0500000 0.2058824 0.2941176
676 1 0.0833333 0.2058824 0.3039216
677 1 0.0000000 0.1764706 0.3137255
678 1 0.0333333 0.1764706 0.3235294
679 1 0.0500000 0.2058824 0.3137255
680 1 0.0833333 0.2058824 0.3235294
681 1 0.0000000 0.1764706 0.3333333
682 1 0.0333333 0.1764706 0.3431373
683 1 0.0500000 0.2058824 0.3333333
684 1 0.0833333 0.2058824 0.3431373
685 1 0.0000000 0.1764706 0.3529412
686 1 0.0333333 0.1764706 0.3627451
687 1 0.0500000 0.2058824 0.3529412
688 1 0.0833333 0.2058824 0.3627451
689 1 0.0000000 0.1764706 0.3725490
690 1 0.0333333 0.1764706 0.3823529
691 1 0.0500000 0.2058824 0.3725490
692 1 0.0833333 0.2058824 0.3823529
693 1 0.0000000 0.1764706 0.3921569
694 1 0.0333333 0.1764706 0.4019608
695 1 0.0500000 0.2058824 0.3921569
696 1 0.0833333 0.2058824 0.4019608
697 1 0.0000000 0.1764706 0.4117647
698 1 0.0333333 0.1764706 0.4215686
699 1 0.0500000 0.2058824 0.4117647
700 1 0.0833333 0.2058824 0.4215686
701 1 0.0000000 0.1764706 0.4313725
702 1 0.0333333 0.1764706 0.4411765
703 1 0.0500000 0.2058824 0.4313725
704 1 0.0833333 0.2058824 0.4411765
705 1 0.0000000 0.1764706 0.4509804
706 1 0.0333333 0.1764706 0.4607843
707 1 0.0500000 0.2058824 0.4509804
708 1 0.0833333 0.2058824 0.4607843
709 1 0.0000000 0.1764706 0.4705882
710 1 0.0333333 0.1764706 0.4803922
711 1 0.0500000 0.2058824 0.4705882
712 1 0.0833333 0.2058824 0.4803922
713 1 0.0000000 0.1764706 0.4901961
714 1 0.0333333 0.1764706 0.5000000
715 1 0.0500000 0.2058824 0.4901961
716 1 0.0833333 0.2058824 0.5000000
717 1 0.0000000 0.1764706 0.5098039
718 1 0.0333333 0.1764706 0.5196078
719 1 0.0500000 0.2058824 0.5098039
720 1 0.0833333 0.2058824 0.5196078
721 1 0.0000000 0.1764706 0.5294118
722 1 0.0333333 0.1764706 0.5392157
723 1 0.0500000 0.2058824 0.5294118
724 1 0.0833333 0.2058824 0.5392157
725 1 0.0000000 0.1764706 0.5490196
726 1 0.0333333 0.1764706 0.5588235
727 1 0.0500000 0.2058824 0.5490196
728 1 0.0833333 0.2058824 0.5588235
729 1 0.0000000 0.1764706 0.5686275
730 1 0.0333333 0.1764706 0.5784314
731 1 0.0500000 0.2058824 0.5686275
732 1 0.0833333 0.2058824 0.5784314
733 1 0.0000000 0.1764706 0.5882353
734 1 0.0333333 0.1764706 0.5980392
735 1 0.0500000 0.2058824 0.5882353
736 1 0.0833333 0.2058824 0.5980392
737 1 0.0000000 0.1764706 0.6078431
738 1 0.0333333 0.1764706 0.6176471
739 1 0.0500000 0.2058824 0.6078431
740 1 0.0833333 0.2058824 0.6176471
741 1 0.0000000 0.1764706 0.6274510
742 1 0.0333333 0.1764706 0.6372549
743 1 0.0500000 0.2058824 0.6274510
744 1 0.0833333 0.2058824 0.6372549
745 1 0.0000000 0.1764706 0.6470588
746 1 0.0333333 0.1764706 0.6568627
747 1 0.0500000 0.2058824 0.6470588
748 1 0.0833333 0.2058824 0.6568627
749 1 0.0000000 0.1764706 0.6666667
750 1 0.0333333 0.1764706 0.6764706
751 1 0.0500000 0.2058824 0.6666667
752 1 0.0833333 0.2058824 0.6764706
753 1 0.0000000 0.1764706 0.6862745
754 1 0.0333333 0.1764706 0.6960784
755 1 0.0500000 0.2058824 0.6862745
756 1 0.0833333 0.2058824 0.6960784
757 1 0.0000000 0.1764706 0.7058824
758 1 0.0333333 0.1764706 0.7156863
759 1 0.0500000 0.2058824 0.7058824
760 1 0.0833333 0.2058824 0.7156863
761 1 0.0000000 0.1764706 0.7254902
762 1 0.0333333 0.1764706 0.7352941
763 1 0.0500000 0.2058824 0.7254902
764 1 0.0833333 0.2058824 0.7352941
765 1 0.0000000 0.1764706 0.7450980
766 1 0.0333333 0.1764706 0.7549020
767 1 0.0500000 0.2058824 0.7450980
768 1 0.0833333 0.2058824 0.7549020
769 1 0.0000000 0.1764706 0.7647059
770 1 0.0333333 0.1764706 0.7745098
771 1 0.0500000 0.2058824 0.7647059
772 1 0.0833333 0.2058824 0.7745098
773 1 0.0000000 0.1764706 0.7843137
774 1 0.0333333 0.1764706 0.7941176
775 1 0.0500000 0.2058824 0.7843137
776 1 0.0833333 0.2058824 0.7941176
777 1 0.0000000 0.1764706 0.8039216
778 1 0.0333333 0.1764706 0.8137255
779 1 0.0500000 0.2058824 0.8039216
780 1 0.0833333 0.2058824 0.8137255
781 1 0.0000000 0.1764706 0.8235294
782 1 0.0333333 0.1764706 0.8333333
783 1 0.0500000 0.2058824 0.8235294
784 1 0.0833333 0.2058824 0.8333333
785 1 0.0000000 0.1764706 0.8431373
786 1 0.0333333 0.1764706 0.8529412
787 1 0.0500000 0.2058824 0.8431373
788 1 0.0833333 0.2058824 0.8529412
789 1 0.0000000 0.1764706 0.8627451
790 1 0.0333333 0.1764706 0.8725490
791 1 0.0500000 0.2058824 0.8627451
792 1 0.0833333 0.2058824 0.8725490
793 1 0.0000000 0.1764706 0.8823529
794 1 0.0333333 0.1764706 0.8921569
795 1 0.0500000 0.2058824 0.8823529
796 1 0.0833333 0.2058824 0.8921569
797 1 0.0000000 0.1764706 0.9019608
798 1 0.0333333 0.1764706 0.9117647
799 1 0.0500000 0.2058824 0.9019608
800 1 0.0833333 0.2058824 0.9117647
801 1 0.0000000 0.1764706 0.9215686
802 1 0.0333333 0.1764706 0.9313725
803 1 0.0500000 0.2058824 0.9215686
804 1 0.0833333 0.2058824 0.9313725
805 1 0.0000000 0.1764706 0.9411765
806 1 0.0333333 0.1764706 0.9509804
807 1 0.0500000 0.2058824 0.9411765
808 1 0.0833333 0.2058824 0.9509804
809 1 0.0000000 0.1764706 0.9607843
810 1 0.0333333 0.1764706 0.9705882
811 1 0.0500000 0.2058824 0.9607843
812 1 0.0833333 0.2058824 0.9705882
813 1 0.0000000 0.1764706 0.9803922
814 1 0.0333333 0.1764706 0.9901961
815 1 0.0500000 0.2058824 0.9803922
816 1 0.0833333 0.2058824 0.9901961
817 1 0.0000000 0.2352941 0.0000000
818 1 0.0333333 0.2352941 0.0098039
819 1 0.0500000 0.2647059 0.0000000
820 1 0.0833333 0.2647059 0.0098039
821 1 0.0000000 0.2352941 0.0196078
822 1 0.0333333 0.2352941 0.0294118
823 1 0.0500000 0.2647059 0.0196078
824 1 0.0833333 0.2647059 0.0294118
825 1 0.0000000 0.2352941 0.0392157
826 1 0.0333333 0.2352941 0.0490196
827 1 0.0500000 0.2647059 0.0392157
828 1 0.0833333 0.2647059 0.0490196
829 1 0.0000000 0.2352941 0.0588235
830 1 0.0333333 0.2352941 0.0686275
831 1 0.0500000 0.2647059 0.0588235